<?xml version="1.0" encoding="UTF-8"?>

<!-- generated on Wed 02 Sep 2020 12:33:32 AM EDT by Eclipse SUMO GUI Version UNKNOWN
<configuration xmlns:xsi="http://www.w3.org/2001/XMLSchema-instance" xsi:noNamespaceSchemaLocation="http://sumo.dlr.de/xsd/sumoConfiguration.xsd">

    <input>
        <net-file value="exp/..//data/map/notre_dame.net.xml"/>
        <route-files value="exp/..//data/trips/notre_dame_persons.trips.xml,exp/..//data/trips/notre_dame_cars.trips.xml,exp/..//data/trips/notre_dame_bikes.trips.xml"/>
        <additional-files value="exp/..//data/map/notre_dame.poly.xml,exp/..//data/trips/vtypes.add.xml"/>
    </input>

    <output>
        <fcd-output value="exp/..//output/notre_dame.fcd.xml"/>
        <fcd-output.geo value="true"/>
    </output>

    <time>
        <begin value="15000"/>
        <end value="230400"/>
    </time>

    <routing>
        <device.rerouting.adaptation-steps value="30"/>
    </routing>

    <gui_only>
        <gui-settings-file value="exp/notre_dame.view.xml"/>
    </gui_only>

</configuration>
-->

<fcd-export xmlns:xsi="http://www.w3.org/2001/XMLSchema-instance" xsi:noNamespaceSchemaLocation="http://sumo.dlr.de/xsd/fcd_file.xsd">
    <timestep time="15000.00"/>
    <timestep time="15001.00"/>
    <timestep time="15002.00"/>
    <timestep time="15003.00"/>
    <timestep time="15004.00"/>
    <timestep time="15005.00"/>
    <timestep time="15006.00"/>
    <timestep time="15007.00"/>
    <timestep time="15008.00"/>
    <timestep time="15009.00"/>
    <timestep time="15010.00"/>
    <timestep time="15011.00"/>
    <timestep time="15012.00"/>
    <timestep time="15013.00"/>
    <timestep time="15014.00"/>
    <timestep time="15015.00"/>
    <timestep time="15016.00"/>
    <timestep time="15017.00"/>
    <timestep time="15018.00"/>
    <timestep time="15019.00"/>
    <timestep time="15020.00"/>
    <timestep time="15021.00"/>
    <timestep time="15022.00"/>
    <timestep time="15023.00"/>
    <timestep time="15024.00"/>
    <timestep time="15025.00"/>
    <timestep time="15026.00"/>
    <timestep time="15027.00"/>
    <timestep time="15028.00"/>
    <timestep time="15029.00"/>
    <timestep time="15030.00"/>
    <timestep time="15031.00"/>
    <timestep time="15032.00"/>
    <timestep time="15033.00"/>
    <timestep time="15034.00"/>
    <timestep time="15035.00"/>
    <timestep time="15036.00"/>
    <timestep time="15037.00"/>
    <timestep time="15038.00"/>
    <timestep time="15039.00"/>
    <timestep time="15040.00"/>
    <timestep time="15041.00"/>
    <timestep time="15042.00"/>
    <timestep time="15043.00"/>
    <timestep time="15044.00"/>
    <timestep time="15045.00"/>
    <timestep time="15046.00"/>
    <timestep time="15047.00"/>
    <timestep time="15048.00"/>
    <timestep time="15049.00"/>
    <timestep time="15050.00"/>
    <timestep time="15051.00"/>
    <timestep time="15052.00"/>
    <timestep time="15053.00"/>
    <timestep time="15054.00"/>
    <timestep time="15055.00"/>
    <timestep time="15056.00"/>
    <timestep time="15057.00"/>
    <timestep time="15058.00"/>
    <timestep time="15059.00"/>
    <timestep time="15060.00"/>
    <timestep time="15061.00"/>
    <timestep time="15062.00"/>
    <timestep time="15063.00"/>
    <timestep time="15064.00"/>
    <timestep time="15065.00"/>
    <timestep time="15066.00"/>
    <timestep time="15067.00"/>
    <timestep time="15068.00"/>
    <timestep time="15069.00"/>
    <timestep time="15070.00"/>
    <timestep time="15071.00"/>
    <timestep time="15072.00"/>
    <timestep time="15073.00"/>
    <timestep time="15074.00"/>
    <timestep time="15075.00"/>
    <timestep time="15076.00"/>
    <timestep time="15077.00"/>
    <timestep time="15078.00"/>
    <timestep time="15079.00"/>
    <timestep time="15080.00"/>
    <timestep time="15081.00"/>
    <timestep time="15082.00"/>
    <timestep time="15083.00"/>
    <timestep time="15084.00"/>
    <timestep time="15085.00"/>
    <timestep time="15086.00"/>
    <timestep time="15087.00"/>
    <timestep time="15088.00"/>
    <timestep time="15089.00"/>
    <timestep time="15090.00"/>
    <timestep time="15091.00"/>
    <timestep time="15092.00"/>
    <timestep time="15093.00"/>
    <timestep time="15094.00"/>
    <timestep time="15095.00"/>
    <timestep time="15096.00"/>
    <timestep time="15097.00"/>
    <timestep time="15098.00"/>
    <timestep time="15099.00"/>
    <timestep time="15100.00"/>
    <timestep time="15101.00"/>
    <timestep time="15102.00"/>
    <timestep time="15103.00"/>
    <timestep time="15104.00"/>
    <timestep time="15105.00"/>
    <timestep time="15106.00"/>
    <timestep time="15107.00"/>
    <timestep time="15108.00"/>
    <timestep time="15109.00"/>
    <timestep time="15110.00"/>
    <timestep time="15111.00"/>
    <timestep time="15112.00"/>
    <timestep time="15113.00"/>
    <timestep time="15114.00"/>
    <timestep time="15115.00"/>
    <timestep time="15116.00"/>
    <timestep time="15117.00"/>
    <timestep time="15118.00"/>
    <timestep time="15119.00"/>
    <timestep time="15120.00"/>
    <timestep time="15121.00"/>
    <timestep time="15122.00"/>
    <timestep time="15123.00"/>
    <timestep time="15124.00"/>
    <timestep time="15125.00"/>
    <timestep time="15126.00"/>
    <timestep time="15127.00"/>
    <timestep time="15128.00"/>
    <timestep time="15129.00"/>
    <timestep time="15130.00"/>
    <timestep time="15131.00"/>
    <timestep time="15132.00"/>
    <timestep time="15133.00"/>
    <timestep time="15134.00"/>
    <timestep time="15135.00"/>
    <timestep time="15136.00"/>
    <timestep time="15137.00"/>
    <timestep time="15138.00"/>
    <timestep time="15139.00"/>
    <timestep time="15140.00"/>
    <timestep time="15141.00"/>
    <timestep time="15142.00"/>
    <timestep time="15143.00"/>
    <timestep time="15144.00"/>
    <timestep time="15145.00"/>
    <timestep time="15146.00"/>
    <timestep time="15147.00"/>
    <timestep time="15148.00"/>
    <timestep time="15149.00"/>
    <timestep time="15150.00"/>
    <timestep time="15151.00"/>
    <timestep time="15152.00"/>
    <timestep time="15153.00"/>
    <timestep time="15154.00"/>
    <timestep time="15155.00"/>
    <timestep time="15156.00"/>
    <timestep time="15157.00"/>
    <timestep time="15158.00"/>
    <timestep time="15159.00"/>
    <timestep time="15160.00"/>
    <timestep time="15161.00"/>
    <timestep time="15162.00"/>
    <timestep time="15163.00"/>
    <timestep time="15164.00"/>
    <timestep time="15165.00"/>
    <timestep time="15166.00"/>
    <timestep time="15167.00"/>
    <timestep time="15168.00"/>
    <timestep time="15169.00"/>
    <timestep time="15170.00"/>
    <timestep time="15171.00"/>
    <timestep time="15172.00"/>
    <timestep time="15173.00"/>
    <timestep time="15174.00"/>
    <timestep time="15175.00"/>
    <timestep time="15176.00"/>
    <timestep time="15177.00"/>
    <timestep time="15178.00"/>
    <timestep time="15179.00"/>
    <timestep time="15180.00"/>
    <timestep time="15181.00"/>
    <timestep time="15182.00"/>
    <timestep time="15183.00"/>
    <timestep time="15184.00"/>
    <timestep time="15185.00"/>
    <timestep time="15186.00"/>
    <timestep time="15187.00"/>
    <timestep time="15188.00"/>
    <timestep time="15189.00"/>
    <timestep time="15190.00"/>
    <timestep time="15191.00"/>
    <timestep time="15192.00"/>
    <timestep time="15193.00"/>
    <timestep time="15194.00"/>
    <timestep time="15195.00"/>
    <timestep time="15196.00"/>
    <timestep time="15197.00"/>
    <timestep time="15198.00"/>
    <timestep time="15199.00"/>
    <timestep time="15200.00"/>
    <timestep time="15201.00"/>
    <timestep time="15202.00"/>
    <timestep time="15203.00"/>
    <timestep time="15204.00"/>
    <timestep time="15205.00"/>
    <timestep time="15206.00"/>
    <timestep time="15207.00"/>
    <timestep time="15208.00"/>
    <timestep time="15209.00"/>
    <timestep time="15210.00"/>
    <timestep time="15211.00"/>
    <timestep time="15212.00"/>
    <timestep time="15213.00"/>
    <timestep time="15214.00"/>
    <timestep time="15215.00"/>
    <timestep time="15216.00"/>
    <timestep time="15217.00"/>
    <timestep time="15218.00"/>
    <timestep time="15219.00"/>
    <timestep time="15220.00"/>
    <timestep time="15221.00"/>
    <timestep time="15222.00"/>
    <timestep time="15223.00"/>
    <timestep time="15224.00"/>
    <timestep time="15225.00"/>
    <timestep time="15226.00"/>
    <timestep time="15227.00"/>
    <timestep time="15228.00"/>
    <timestep time="15229.00"/>
    <timestep time="15230.00"/>
    <timestep time="15231.00"/>
    <timestep time="15232.00"/>
    <timestep time="15233.00"/>
    <timestep time="15234.00"/>
    <timestep time="15235.00"/>
    <timestep time="15236.00"/>
    <timestep time="15237.00"/>
    <timestep time="15238.00"/>
    <timestep time="15239.00"/>
    <timestep time="15240.00"/>
    <timestep time="15241.00"/>
    <timestep time="15242.00"/>
    <timestep time="15243.00"/>
    <timestep time="15244.00"/>
    <timestep time="15245.00"/>
    <timestep time="15246.00"/>
    <timestep time="15247.00"/>
    <timestep time="15248.00"/>
    <timestep time="15249.00"/>
    <timestep time="15250.00"/>
    <timestep time="15251.00"/>
    <timestep time="15252.00"/>
    <timestep time="15253.00"/>
    <timestep time="15254.00"/>
    <timestep time="15255.00"/>
    <timestep time="15256.00"/>
    <timestep time="15257.00"/>
    <timestep time="15258.00"/>
    <timestep time="15259.00"/>
    <timestep time="15260.00"/>
    <timestep time="15261.00"/>
    <timestep time="15262.00"/>
    <timestep time="15263.00"/>
    <timestep time="15264.00"/>
    <timestep time="15265.00"/>
    <timestep time="15266.00"/>
    <timestep time="15267.00"/>
    <timestep time="15268.00"/>
    <timestep time="15269.00"/>
    <timestep time="15270.00"/>
    <timestep time="15271.00"/>
    <timestep time="15272.00"/>
    <timestep time="15273.00"/>
    <timestep time="15274.00"/>
    <timestep time="15275.00"/>
    <timestep time="15276.00"/>
    <timestep time="15277.00"/>
    <timestep time="15278.00"/>
    <timestep time="15279.00"/>
    <timestep time="15280.00"/>
    <timestep time="15281.00"/>
    <timestep time="15282.00"/>
    <timestep time="15283.00"/>
    <timestep time="15284.00"/>
    <timestep time="15285.00"/>
    <timestep time="15286.00"/>
    <timestep time="15287.00"/>
    <timestep time="15288.00"/>
    <timestep time="15289.00"/>
    <timestep time="15290.00"/>
    <timestep time="15291.00"/>
    <timestep time="15292.00"/>
    <timestep time="15293.00"/>
    <timestep time="15294.00"/>
    <timestep time="15295.00"/>
    <timestep time="15296.00"/>
    <timestep time="15297.00"/>
    <timestep time="15298.00"/>
    <timestep time="15299.00"/>
    <timestep time="15300.00"/>
    <timestep time="15301.00"/>
    <timestep time="15302.00"/>
    <timestep time="15303.00"/>
    <timestep time="15304.00"/>
    <timestep time="15305.00"/>
    <timestep time="15306.00"/>
    <timestep time="15307.00"/>
    <timestep time="15308.00"/>
    <timestep time="15309.00"/>
    <timestep time="15310.00"/>
    <timestep time="15311.00"/>
    <timestep time="15312.00"/>
    <timestep time="15313.00"/>
    <timestep time="15314.00"/>
    <timestep time="15315.00"/>
    <timestep time="15316.00"/>
    <timestep time="15317.00"/>
    <timestep time="15318.00"/>
    <timestep time="15319.00"/>
    <timestep time="15320.00"/>
    <timestep time="15321.00"/>
    <timestep time="15322.00"/>
    <timestep time="15323.00"/>
    <timestep time="15324.00"/>
    <timestep time="15325.00"/>
    <timestep time="15326.00"/>
    <timestep time="15327.00"/>
    <timestep time="15328.00"/>
    <timestep time="15329.00"/>
    <timestep time="15330.00"/>
    <timestep time="15331.00"/>
    <timestep time="15332.00"/>
    <timestep time="15333.00"/>
    <timestep time="15334.00"/>
    <timestep time="15335.00"/>
    <timestep time="15336.00"/>
    <timestep time="15337.00"/>
    <timestep time="15338.00"/>
    <timestep time="15339.00"/>
    <timestep time="15340.00"/>
    <timestep time="15341.00"/>
    <timestep time="15342.00"/>
    <timestep time="15343.00"/>
    <timestep time="15344.00"/>
    <timestep time="15345.00"/>
    <timestep time="15346.00"/>
    <timestep time="15347.00"/>
    <timestep time="15348.00"/>
    <timestep time="15349.00"/>
    <timestep time="15350.00"/>
    <timestep time="15351.00"/>
    <timestep time="15352.00"/>
    <timestep time="15353.00"/>
    <timestep time="15354.00"/>
    <timestep time="15355.00"/>
    <timestep time="15356.00"/>
    <timestep time="15357.00"/>
    <timestep time="15358.00"/>
    <timestep time="15359.00"/>
    <timestep time="15360.00"/>
    <timestep time="15361.00"/>
    <timestep time="15362.00"/>
    <timestep time="15363.00"/>
    <timestep time="15364.00"/>
    <timestep time="15365.00"/>
    <timestep time="15366.00"/>
    <timestep time="15367.00"/>
    <timestep time="15368.00"/>
    <timestep time="15369.00"/>
    <timestep time="15370.00"/>
    <timestep time="15371.00"/>
    <timestep time="15372.00"/>
    <timestep time="15373.00"/>
    <timestep time="15374.00"/>
    <timestep time="15375.00"/>
    <timestep time="15376.00"/>
    <timestep time="15377.00"/>
    <timestep time="15378.00"/>
    <timestep time="15379.00"/>
    <timestep time="15380.00"/>
    <timestep time="15381.00"/>
    <timestep time="15382.00"/>
    <timestep time="15383.00"/>
    <timestep time="15384.00"/>
    <timestep time="15385.00"/>
    <timestep time="15386.00"/>
    <timestep time="15387.00"/>
    <timestep time="15388.00"/>
    <timestep time="15389.00"/>
    <timestep time="15390.00"/>
    <timestep time="15391.00"/>
    <timestep time="15392.00"/>
    <timestep time="15393.00"/>
    <timestep time="15394.00"/>
    <timestep time="15395.00"/>
    <timestep time="15396.00"/>
    <timestep time="15397.00"/>
    <timestep time="15398.00"/>
    <timestep time="15399.00"/>
    <timestep time="15400.00"/>
    <timestep time="15401.00"/>
    <timestep time="15402.00"/>
    <timestep time="15403.00"/>
    <timestep time="15404.00"/>
    <timestep time="15405.00"/>
    <timestep time="15406.00"/>
    <timestep time="15407.00"/>
    <timestep time="15408.00"/>
    <timestep time="15409.00"/>
    <timestep time="15410.00"/>
    <timestep time="15411.00"/>
    <timestep time="15412.00"/>
    <timestep time="15413.00"/>
    <timestep time="15414.00"/>
    <timestep time="15415.00"/>
    <timestep time="15416.00"/>
    <timestep time="15417.00"/>
    <timestep time="15418.00"/>
    <timestep time="15419.00"/>
    <timestep time="15420.00"/>
    <timestep time="15421.00"/>
    <timestep time="15422.00"/>
    <timestep time="15423.00"/>
    <timestep time="15424.00"/>
    <timestep time="15425.00"/>
    <timestep time="15426.00"/>
    <timestep time="15427.00"/>
    <timestep time="15428.00"/>
    <timestep time="15429.00"/>
    <timestep time="15430.00"/>
    <timestep time="15431.00"/>
    <timestep time="15432.00"/>
    <timestep time="15433.00"/>
    <timestep time="15434.00"/>
    <timestep time="15435.00"/>
    <timestep time="15436.00"/>
    <timestep time="15437.00"/>
    <timestep time="15438.00"/>
    <timestep time="15439.00"/>
    <timestep time="15440.00"/>
    <timestep time="15441.00"/>
    <timestep time="15442.00"/>
    <timestep time="15443.00"/>
    <timestep time="15444.00"/>
    <timestep time="15445.00"/>
    <timestep time="15446.00"/>
    <timestep time="15447.00"/>
    <timestep time="15448.00"/>
    <timestep time="15449.00"/>
    <timestep time="15450.00"/>
    <timestep time="15451.00"/>
    <timestep time="15452.00"/>
    <timestep time="15453.00"/>
    <timestep time="15454.00"/>
    <timestep time="15455.00"/>
    <timestep time="15456.00"/>
    <timestep time="15457.00"/>
    <timestep time="15458.00"/>
    <timestep time="15459.00"/>
    <timestep time="15460.00"/>
    <timestep time="15461.00"/>
    <timestep time="15462.00"/>
    <timestep time="15463.00"/>
    <timestep time="15464.00"/>
    <timestep time="15465.00"/>
    <timestep time="15466.00"/>
    <timestep time="15467.00"/>
    <timestep time="15468.00"/>
    <timestep time="15469.00"/>
    <timestep time="15470.00"/>
    <timestep time="15471.00"/>
    <timestep time="15472.00"/>
    <timestep time="15473.00"/>
    <timestep time="15474.00"/>
    <timestep time="15475.00"/>
    <timestep time="15476.00"/>
    <timestep time="15477.00"/>
    <timestep time="15478.00"/>
    <timestep time="15479.00"/>
    <timestep time="15480.00"/>
    <timestep time="15481.00"/>
    <timestep time="15482.00"/>
    <timestep time="15483.00"/>
    <timestep time="15484.00"/>
    <timestep time="15485.00"/>
    <timestep time="15486.00"/>
    <timestep time="15487.00"/>
    <timestep time="15488.00"/>
    <timestep time="15489.00"/>
    <timestep time="15490.00"/>
    <timestep time="15491.00"/>
    <timestep time="15492.00"/>
    <timestep time="15493.00"/>
    <timestep time="15494.00"/>
    <timestep time="15495.00"/>
    <timestep time="15496.00"/>
    <timestep time="15497.00"/>
    <timestep time="15498.00"/>
    <timestep time="15499.00"/>
    <timestep time="15500.00"/>
    <timestep time="15501.00"/>
    <timestep time="15502.00"/>
    <timestep time="15503.00"/>
    <timestep time="15504.00"/>
    <timestep time="15505.00"/>
    <timestep time="15506.00"/>
    <timestep time="15507.00"/>
    <timestep time="15508.00"/>
    <timestep time="15509.00"/>
    <timestep time="15510.00"/>
    <timestep time="15511.00"/>
    <timestep time="15512.00"/>
    <timestep time="15513.00"/>
    <timestep time="15514.00"/>
    <timestep time="15515.00"/>
    <timestep time="15516.00"/>
    <timestep time="15517.00"/>
    <timestep time="15518.00"/>
    <timestep time="15519.00"/>
    <timestep time="15520.00"/>
    <timestep time="15521.00"/>
    <timestep time="15522.00"/>
    <timestep time="15523.00"/>
    <timestep time="15524.00"/>
    <timestep time="15525.00"/>
    <timestep time="15526.00"/>
    <timestep time="15527.00"/>
    <timestep time="15528.00"/>
    <timestep time="15529.00"/>
    <timestep time="15530.00"/>
    <timestep time="15531.00"/>
    <timestep time="15532.00"/>
    <timestep time="15533.00"/>
    <timestep time="15534.00"/>
    <timestep time="15535.00"/>
    <timestep time="15536.00"/>
    <timestep time="15537.00"/>
    <timestep time="15538.00"/>
    <timestep time="15539.00"/>
    <timestep time="15540.00"/>
    <timestep time="15541.00"/>
    <timestep time="15542.00"/>
    <timestep time="15543.00"/>
    <timestep time="15544.00"/>
    <timestep time="15545.00"/>
    <timestep time="15546.00"/>
    <timestep time="15547.00"/>
    <timestep time="15548.00"/>
    <timestep time="15549.00"/>
    <timestep time="15550.00"/>
    <timestep time="15551.00"/>
    <timestep time="15552.00"/>
    <timestep time="15553.00"/>
    <timestep time="15554.00"/>
    <timestep time="15555.00"/>
    <timestep time="15556.00"/>
    <timestep time="15557.00"/>
    <timestep time="15558.00"/>
    <timestep time="15559.00"/>
    <timestep time="15560.00"/>
    <timestep time="15561.00"/>
    <timestep time="15562.00"/>
    <timestep time="15563.00"/>
    <timestep time="15564.00"/>
    <timestep time="15565.00"/>
    <timestep time="15566.00"/>
    <timestep time="15567.00"/>
    <timestep time="15568.00"/>
    <timestep time="15569.00"/>
    <timestep time="15570.00"/>
    <timestep time="15571.00"/>
    <timestep time="15572.00"/>
    <timestep time="15573.00"/>
    <timestep time="15574.00"/>
    <timestep time="15575.00"/>
    <timestep time="15576.00"/>
    <timestep time="15577.00"/>
    <timestep time="15578.00"/>
    <timestep time="15579.00"/>
    <timestep time="15580.00"/>
    <timestep time="15581.00"/>
    <timestep time="15582.00"/>
    <timestep time="15583.00"/>
    <timestep time="15584.00"/>
    <timestep time="15585.00"/>
    <timestep time="15586.00"/>
    <timestep time="15587.00"/>
    <timestep time="15588.00"/>
    <timestep time="15589.00"/>
    <timestep time="15590.00"/>
    <timestep time="15591.00"/>
    <timestep time="15592.00"/>
    <timestep time="15593.00"/>
    <timestep time="15594.00"/>
    <timestep time="15595.00"/>
    <timestep time="15596.00"/>
    <timestep time="15597.00"/>
    <timestep time="15598.00"/>
    <timestep time="15599.00"/>
    <timestep time="15600.00"/>
    <timestep time="15601.00"/>
    <timestep time="15602.00"/>
    <timestep time="15603.00"/>
    <timestep time="15604.00"/>
    <timestep time="15605.00"/>
    <timestep time="15606.00"/>
    <timestep time="15607.00"/>
    <timestep time="15608.00"/>
    <timestep time="15609.00"/>
    <timestep time="15610.00"/>
    <timestep time="15611.00"/>
    <timestep time="15612.00"/>
    <timestep time="15613.00"/>
    <timestep time="15614.00"/>
    <timestep time="15615.00"/>
    <timestep time="15616.00"/>
    <timestep time="15617.00"/>
    <timestep time="15618.00"/>
    <timestep time="15619.00"/>
    <timestep time="15620.00"/>
    <timestep time="15621.00"/>
    <timestep time="15622.00"/>
    <timestep time="15623.00"/>
    <timestep time="15624.00"/>
    <timestep time="15625.00"/>
    <timestep time="15626.00"/>
    <timestep time="15627.00"/>
    <timestep time="15628.00"/>
    <timestep time="15629.00"/>
    <timestep time="15630.00"/>
    <timestep time="15631.00"/>
    <timestep time="15632.00"/>
    <timestep time="15633.00"/>
    <timestep time="15634.00"/>
    <timestep time="15635.00"/>
    <timestep time="15636.00"/>
    <timestep time="15637.00"/>
    <timestep time="15638.00"/>
    <timestep time="15639.00"/>
    <timestep time="15640.00"/>
    <timestep time="15641.00"/>
    <timestep time="15642.00"/>
    <timestep time="15643.00"/>
    <timestep time="15644.00"/>
    <timestep time="15645.00"/>
    <timestep time="15646.00"/>
    <timestep time="15647.00"/>
    <timestep time="15648.00"/>
    <timestep time="15649.00"/>
    <timestep time="15650.00"/>
    <timestep time="15651.00"/>
    <timestep time="15652.00"/>
    <timestep time="15653.00"/>
    <timestep time="15654.00"/>
    <timestep time="15655.00"/>
    <timestep time="15656.00"/>
    <timestep time="15657.00"/>
    <timestep time="15658.00"/>
    <timestep time="15659.00"/>
    <timestep time="15660.00"/>
    <timestep time="15661.00"/>
    <timestep time="15662.00"/>
    <timestep time="15663.00"/>
    <timestep time="15664.00"/>
    <timestep time="15665.00"/>
    <timestep time="15666.00"/>
    <timestep time="15667.00"/>
    <timestep time="15668.00"/>
    <timestep time="15669.00"/>
    <timestep time="15670.00"/>
    <timestep time="15671.00"/>
    <timestep time="15672.00"/>
    <timestep time="15673.00"/>
    <timestep time="15674.00"/>
    <timestep time="15675.00"/>
    <timestep time="15676.00"/>
    <timestep time="15677.00"/>
    <timestep time="15678.00"/>
    <timestep time="15679.00"/>
    <timestep time="15680.00"/>
    <timestep time="15681.00"/>
    <timestep time="15682.00"/>
    <timestep time="15683.00"/>
    <timestep time="15684.00"/>
    <timestep time="15685.00"/>
    <timestep time="15686.00"/>
    <timestep time="15687.00"/>
    <timestep time="15688.00"/>
    <timestep time="15689.00"/>
    <timestep time="15690.00"/>
    <timestep time="15691.00"/>
    <timestep time="15692.00"/>
    <timestep time="15693.00"/>
    <timestep time="15694.00"/>
    <timestep time="15695.00"/>
    <timestep time="15696.00"/>
    <timestep time="15697.00"/>
    <timestep time="15698.00"/>
    <timestep time="15699.00"/>
    <timestep time="15700.00"/>
    <timestep time="15701.00"/>
    <timestep time="15702.00"/>
    <timestep time="15703.00"/>
    <timestep time="15704.00"/>
    <timestep time="15705.00"/>
    <timestep time="15706.00"/>
    <timestep time="15707.00"/>
    <timestep time="15708.00"/>
    <timestep time="15709.00"/>
    <timestep time="15710.00"/>
    <timestep time="15711.00"/>
    <timestep time="15712.00"/>
    <timestep time="15713.00"/>
    <timestep time="15714.00"/>
    <timestep time="15715.00"/>
    <timestep time="15716.00"/>
    <timestep time="15717.00"/>
    <timestep time="15718.00"/>
    <timestep time="15719.00"/>
    <timestep time="15720.00"/>
    <timestep time="15721.00"/>
    <timestep time="15722.00"/>
    <timestep time="15723.00"/>
    <timestep time="15724.00"/>
    <timestep time="15725.00"/>
    <timestep time="15726.00"/>
    <timestep time="15727.00"/>
    <timestep time="15728.00"/>
    <timestep time="15729.00"/>
    <timestep time="15730.00"/>
    <timestep time="15731.00"/>
    <timestep time="15732.00"/>
    <timestep time="15733.00"/>
    <timestep time="15734.00"/>
    <timestep time="15735.00"/>
    <timestep time="15736.00"/>
    <timestep time="15737.00"/>
    <timestep time="15738.00"/>
    <timestep time="15739.00"/>
    <timestep time="15740.00"/>
    <timestep time="15741.00"/>
    <timestep time="15742.00"/>
    <timestep time="15743.00"/>
    <timestep time="15744.00"/>
    <timestep time="15745.00"/>
    <timestep time="15746.00"/>
    <timestep time="15747.00"/>
    <timestep time="15748.00"/>
    <timestep time="15749.00"/>
    <timestep time="15750.00"/>
    <timestep time="15751.00"/>
    <timestep time="15752.00"/>
    <timestep time="15753.00"/>
    <timestep time="15754.00"/>
    <timestep time="15755.00"/>
    <timestep time="15756.00"/>
    <timestep time="15757.00"/>
    <timestep time="15758.00"/>
    <timestep time="15759.00"/>
    <timestep time="15760.00"/>
    <timestep time="15761.00"/>
    <timestep time="15762.00"/>
    <timestep time="15763.00"/>
    <timestep time="15764.00"/>
    <timestep time="15765.00"/>
    <timestep time="15766.00"/>
    <timestep time="15767.00"/>
    <timestep time="15768.00"/>
    <timestep time="15769.00"/>
    <timestep time="15770.00"/>
    <timestep time="15771.00"/>
    <timestep time="15772.00"/>
    <timestep time="15773.00"/>
    <timestep time="15774.00"/>
    <timestep time="15775.00"/>
    <timestep time="15776.00"/>
    <timestep time="15777.00"/>
    <timestep time="15778.00"/>
    <timestep time="15779.00"/>
    <timestep time="15780.00"/>
    <timestep time="15781.00"/>
    <timestep time="15782.00"/>
    <timestep time="15783.00"/>
    <timestep time="15784.00"/>
    <timestep time="15785.00"/>
    <timestep time="15786.00"/>
    <timestep time="15787.00"/>
    <timestep time="15788.00"/>
    <timestep time="15789.00"/>
    <timestep time="15790.00"/>
    <timestep time="15791.00"/>
    <timestep time="15792.00"/>
    <timestep time="15793.00"/>
    <timestep time="15794.00"/>
    <timestep time="15795.00"/>
    <timestep time="15796.00"/>
    <timestep time="15797.00"/>
    <timestep time="15798.00"/>
    <timestep time="15799.00"/>
    <timestep time="15800.00"/>
    <timestep time="15801.00"/>
    <timestep time="15802.00"/>
    <timestep time="15803.00"/>
    <timestep time="15804.00"/>
    <timestep time="15805.00"/>
    <timestep time="15806.00"/>
    <timestep time="15807.00"/>
    <timestep time="15808.00"/>
    <timestep time="15809.00"/>
    <timestep time="15810.00"/>
    <timestep time="15811.00"/>
    <timestep time="15812.00"/>
    <timestep time="15813.00"/>
    <timestep time="15814.00"/>
    <timestep time="15815.00"/>
    <timestep time="15816.00"/>
    <timestep time="15817.00"/>
    <timestep time="15818.00"/>
    <timestep time="15819.00"/>
    <timestep time="15820.00"/>
    <timestep time="15821.00"/>
    <timestep time="15822.00"/>
    <timestep time="15823.00"/>
    <timestep time="15824.00"/>
    <timestep time="15825.00"/>
    <timestep time="15826.00"/>
    <timestep time="15827.00"/>
    <timestep time="15828.00"/>
    <timestep time="15829.00"/>
    <timestep time="15830.00"/>
    <timestep time="15831.00"/>
    <timestep time="15832.00"/>
    <timestep time="15833.00"/>
    <timestep time="15834.00"/>
    <timestep time="15835.00"/>
    <timestep time="15836.00"/>
    <timestep time="15837.00"/>
    <timestep time="15838.00"/>
    <timestep time="15839.00"/>
    <timestep time="15840.00"/>
    <timestep time="15841.00"/>
    <timestep time="15842.00"/>
    <timestep time="15843.00"/>
    <timestep time="15844.00"/>
    <timestep time="15845.00"/>
    <timestep time="15846.00"/>
    <timestep time="15847.00"/>
    <timestep time="15848.00"/>
    <timestep time="15849.00"/>
    <timestep time="15850.00"/>
    <timestep time="15851.00"/>
    <timestep time="15852.00"/>
    <timestep time="15853.00"/>
    <timestep time="15854.00"/>
    <timestep time="15855.00"/>
    <timestep time="15856.00"/>
    <timestep time="15857.00"/>
    <timestep time="15858.00"/>
    <timestep time="15859.00"/>
    <timestep time="15860.00"/>
    <timestep time="15861.00"/>
    <timestep time="15862.00"/>
    <timestep time="15863.00"/>
    <timestep time="15864.00"/>
    <timestep time="15865.00"/>
    <timestep time="15866.00"/>
    <timestep time="15867.00"/>
    <timestep time="15868.00"/>
    <timestep time="15869.00"/>
    <timestep time="15870.00"/>
    <timestep time="15871.00"/>
    <timestep time="15872.00"/>
    <timestep time="15873.00"/>
    <timestep time="15874.00"/>
    <timestep time="15875.00"/>
    <timestep time="15876.00"/>
    <timestep time="15877.00"/>
    <timestep time="15878.00"/>
    <timestep time="15879.00"/>
    <timestep time="15880.00"/>
    <timestep time="15881.00"/>
    <timestep time="15882.00"/>
    <timestep time="15883.00"/>
    <timestep time="15884.00"/>
    <timestep time="15885.00"/>
    <timestep time="15886.00"/>
    <timestep time="15887.00"/>
    <timestep time="15888.00"/>
    <timestep time="15889.00"/>
    <timestep time="15890.00"/>
    <timestep time="15891.00"/>
    <timestep time="15892.00"/>
    <timestep time="15893.00"/>
    <timestep time="15894.00"/>
    <timestep time="15895.00"/>
    <timestep time="15896.00"/>
    <timestep time="15897.00"/>
    <timestep time="15898.00"/>
    <timestep time="15899.00"/>