<?xml version="1.0" encoding="UTF-8"?>

<!-- generated on Tue Sep  1 23:12:26 2020 by Eclipse SUMO sumo Version UNKNOWN
<configuration xmlns:xsi="http://www.w3.org/2001/XMLSchema-instance" xsi:noNamespaceSchemaLocation="http://sumo.dlr.de/xsd/sumoConfiguration.xsd">

    <input>
        <net-file value="exp/..//data/map/notre_dame.net.xml"/>
        <route-files value="exp/..//data/trips/sample_persons.trips.xml,exp/..//data/trips/sample_cars.trips.xml,exp/..//data/trips/sample_bikes.trips.xml"/>
        <additional-files value="exp/..//data/map/notre_dame.taz.xml,exp/..//data/map/notre_dame.poly.xml,exp/..//data/trips/vtypes.add.xml"/>
    </input>

    <output>
        <fcd-output value="exp/..//output/sample.fcd.xml"/>
        <fcd-output.geo value="true"/>
    </output>

    <time>
        <begin value="27138"/>
        <end value="432000"/>
    </time>

    <routing>
        <device.rerouting.adaptation-steps value="60"/>
    </routing>

    <gui_only>
        <gui-settings-file value="exp/notre_dame.view.xml"/>
    </gui_only>

</configuration>
-->

<fcd-export xmlns:xsi="http://www.w3.org/2001/XMLSchema-instance" xsi:noNamespaceSchemaLocation="http://sumo.dlr.de/xsd/fcd_file.xsd">
    <timestep time="27138.00"/>
    <timestep time="27139.00"/>
    <timestep time="27140.00"/>
    <timestep time="27141.00"/>
    <timestep time="27142.00"/>
    <timestep time="27143.00"/>
    <timestep time="27144.00"/>
    <timestep time="27145.00"/>
    <timestep time="27146.00"/>
    <timestep time="27147.00"/>
    <timestep time="27148.00"/>
    <timestep time="27149.00"/>
    <timestep time="27150.00"/>
    <timestep time="27151.00"/>
    <timestep time="27152.00"/>
    <timestep time="27153.00"/>
    <timestep time="27154.00"/>
    <timestep time="27155.00"/>
    <timestep time="27156.00"/>
    <timestep time="27157.00"/>
    <timestep time="27158.00"/>
    <timestep time="27159.00"/>
    <timestep time="27160.00"/>
    <timestep time="27161.00"/>
    <timestep time="27162.00"/>
    <timestep time="27163.00"/>
    <timestep time="27164.00"/>
    <timestep time="27165.00"/>
    <timestep time="27166.00"/>
    <timestep time="27167.00"/>
    <timestep time="27168.00"/>
    <timestep time="27169.00"/>
    <timestep time="27170.00"/>
    <timestep time="27171.00"/>
    <timestep time="27172.00"/>
    <timestep time="27173.00"/>
    <timestep time="27174.00"/>
    <timestep time="27175.00"/>
    <timestep time="27176.00"/>
    <timestep time="27177.00"/>
    <timestep time="27178.00"/>
    <timestep time="27179.00"/>
    <timestep time="27180.00"/>
    <timestep time="27181.00"/>
    <timestep time="27182.00"/>
    <timestep time="27183.00"/>
    <timestep time="27184.00"/>
    <timestep time="27185.00"/>
    <timestep time="27186.00"/>
    <timestep time="27187.00"/>
    <timestep time="27188.00"/>
    <timestep time="27189.00"/>
    <timestep time="27190.00"/>
    <timestep time="27191.00"/>
    <timestep time="27192.00"/>
    <timestep time="27193.00"/>
    <timestep time="27194.00"/>
    <timestep time="27195.00"/>
    <timestep time="27196.00"/>
    <timestep time="27197.00"/>
    <timestep time="27198.00"/>
    <timestep time="27199.00"/>
    <timestep time="27200.00"/>
    <timestep time="27201.00"/>
    <timestep time="27202.00"/>
    <timestep time="27203.00"/>
    <timestep time="27204.00"/>
    <timestep time="27205.00"/>
    <timestep time="27206.00"/>
    <timestep time="27207.00"/>
    <timestep time="27208.00"/>
    <timestep time="27209.00"/>
    <timestep time="27210.00"/>
    <timestep time="27211.00"/>
    <timestep time="27212.00"/>
    <timestep time="27213.00"/>
    <timestep time="27214.00"/>
    <timestep time="27215.00"/>
    <timestep time="27216.00"/>
    <timestep time="27217.00"/>
    <timestep time="27218.00"/>
    <timestep time="27219.00"/>
    <timestep time="27220.00"/>
    <timestep time="27221.00"/>
    <timestep time="27222.00"/>
    <timestep time="27223.00"/>
    <timestep time="27224.00"/>
    <timestep time="27225.00"/>
    <timestep time="27226.00"/>
    <timestep time="27227.00"/>
    <timestep time="27228.00"/>
    <timestep time="27229.00"/>
    <timestep time="27230.00"/>
    <timestep time="27231.00"/>
    <timestep time="27232.00"/>
    <timestep time="27233.00"/>
    <timestep time="27234.00"/>
    <timestep time="27235.00"/>
    <timestep time="27236.00"/>
    <timestep time="27237.00"/>
    <timestep time="27238.00"/>
    <timestep time="27239.00"/>
    <timestep time="27240.00"/>
    <timestep time="27241.00"/>
    <timestep time="27242.00"/>
    <timestep time="27243.00"/>
    <timestep time="27244.00"/>
    <timestep time="27245.00"/>
    <timestep time="27246.00"/>
    <timestep time="27247.00"/>
    <timestep time="27248.00"/>
    <timestep time="27249.00"/>
    <timestep time="27250.00"/>
    <timestep time="27251.00"/>
    <timestep time="27252.00"/>
    <timestep time="27253.00"/>
    <timestep time="27254.00"/>
    <timestep time="27255.00"/>
    <timestep time="27256.00"/>
    <timestep time="27257.00"/>
    <timestep time="27258.00"/>
    <timestep time="27259.00"/>
    <timestep time="27260.00"/>
    <timestep time="27261.00"/>
    <timestep time="27262.00"/>
    <timestep time="27263.00"/>
    <timestep time="27264.00"/>
    <timestep time="27265.00"/>
    <timestep time="27266.00"/>
    <timestep time="27267.00"/>
    <timestep time="27268.00"/>
    <timestep time="27269.00"/>
    <timestep time="27270.00"/>
    <timestep time="27271.00"/>
    <timestep time="27272.00"/>
    <timestep time="27273.00"/>
    <timestep time="27274.00"/>
    <timestep time="27275.00"/>
    <timestep time="27276.00"/>
    <timestep time="27277.00"/>
    <timestep time="27278.00"/>
    <timestep time="27279.00"/>
    <timestep time="27280.00"/>
    <timestep time="27281.00"/>
    <timestep time="27282.00"/>
    <timestep time="27283.00"/>
    <timestep time="27284.00"/>
    <timestep time="27285.00"/>
    <timestep time="27286.00"/>
    <timestep time="27287.00"/>
    <timestep time="27288.00"/>
    <timestep time="27289.00"/>
    <timestep time="27290.00"/>
    <timestep time="27291.00"/>
    <timestep time="27292.00"/>
    <timestep time="27293.00"/>
    <timestep time="27294.00"/>
    <timestep time="27295.00"/>
    <timestep time="27296.00"/>
    <timestep time="27297.00"/>
    <timestep time="27298.00"/>
    <timestep time="27299.00"/>
    <timestep time="27300.00"/>
    <timestep time="27301.00"/>
    <timestep time="27302.00"/>
    <timestep time="27303.00"/>
    <timestep time="27304.00"/>
    <timestep time="27305.00"/>
    <timestep time="27306.00"/>
    <timestep time="27307.00"/>
    <timestep time="27308.00"/>
    <timestep time="27309.00"/>
    <timestep time="27310.00"/>
    <timestep time="27311.00"/>
    <timestep time="27312.00"/>
    <timestep time="27313.00"/>
    <timestep time="27314.00"/>
    <timestep time="27315.00"/>
    <timestep time="27316.00"/>
    <timestep time="27317.00"/>
    <timestep time="27318.00"/>
    <timestep time="27319.00"/>
    <timestep time="27320.00"/>
    <timestep time="27321.00"/>
    <timestep time="27322.00"/>
    <timestep time="27323.00"/>
    <timestep time="27324.00"/>
    <timestep time="27325.00"/>
    <timestep time="27326.00"/>
    <timestep time="27327.00"/>
    <timestep time="27328.00"/>
    <timestep time="27329.00"/>
    <timestep time="27330.00"/>
    <timestep time="27331.00"/>
    <timestep time="27332.00"/>
    <timestep time="27333.00"/>
    <timestep time="27334.00"/>
    <timestep time="27335.00"/>
    <timestep time="27336.00"/>
    <timestep time="27337.00"/>
    <timestep time="27338.00"/>
    <timestep time="27339.00"/>
    <timestep time="27340.00"/>
    <timestep time="27341.00"/>
    <timestep time="27342.00"/>
    <timestep time="27343.00"/>
    <timestep time="27344.00"/>
    <timestep time="27345.00"/>
    <timestep time="27346.00"/>
    <timestep time="27347.00"/>
    <timestep time="27348.00"/>
    <timestep time="27349.00"/>
    <timestep time="27350.00"/>
    <timestep time="27351.00"/>
    <timestep time="27352.00"/>
    <timestep time="27353.00"/>
    <timestep time="27354.00"/>
    <timestep time="27355.00"/>
    <timestep time="27356.00"/>
    <timestep time="27357.00"/>
    <timestep time="27358.00"/>
    <timestep time="27359.00"/>
    <timestep time="27360.00"/>
    <timestep time="27361.00"/>
    <timestep time="27362.00"/>
    <timestep time="27363.00"/>
    <timestep time="27364.00"/>
    <timestep time="27365.00"/>
    <timestep time="27366.00"/>
    <timestep time="27367.00"/>
    <timestep time="27368.00"/>
    <timestep time="27369.00"/>
    <timestep time="27370.00"/>
    <timestep time="27371.00"/>
    <timestep time="27372.00"/>
    <timestep time="27373.00"/>
    <timestep time="27374.00"/>
    <timestep time="27375.00"/>
    <timestep time="27376.00"/>
    <timestep time="27377.00"/>
    <timestep time="27378.00"/>
    <timestep time="27379.00"/>
    <timestep time="27380.00"/>
    <timestep time="27381.00"/>
    <timestep time="27382.00"/>
    <timestep time="27383.00"/>
    <timestep time="27384.00"/>
    <timestep time="27385.00"/>
    <timestep time="27386.00"/>
    <timestep time="27387.00"/>
    <timestep time="27388.00"/>
    <timestep time="27389.00"/>
    <timestep time="27390.00"/>
    <timestep time="27391.00"/>
    <timestep time="27392.00"/>
    <timestep time="27393.00"/>
    <timestep time="27394.00"/>
    <timestep time="27395.00"/>
    <timestep time="27396.00"/>
    <timestep time="27397.00"/>
    <timestep time="27398.00"/>
    <timestep time="27399.00"/>
    <timestep time="27400.00"/>
    <timestep time="27401.00"/>
    <timestep time="27402.00"/>
    <timestep time="27403.00"/>
    <timestep time="27404.00"/>
    <timestep time="27405.00"/>
    <timestep time="27406.00"/>
    <timestep time="27407.00"/>
    <timestep time="27408.00"/>
    <timestep time="27409.00"/>
    <timestep time="27410.00"/>
    <timestep time="27411.00"/>
    <timestep time="27412.00"/>
    <timestep time="27413.00"/>
    <timestep time="27414.00"/>
    <timestep time="27415.00"/>
    <timestep time="27416.00"/>
    <timestep time="27417.00"/>
    <timestep time="27418.00"/>
    <timestep time="27419.00"/>
    <timestep time="27420.00"/>
    <timestep time="27421.00"/>
    <timestep time="27422.00"/>
    <timestep time="27423.00"/>
    <timestep time="27424.00"/>
    <timestep time="27425.00"/>
    <timestep time="27426.00"/>
    <timestep time="27427.00"/>
    <timestep time="27428.00"/>
    <timestep time="27429.00"/>
    <timestep time="27430.00"/>
    <timestep time="27431.00"/>
    <timestep time="27432.00"/>
    <timestep time="27433.00"/>
    <timestep time="27434.00"/>
    <timestep time="27435.00"/>
    <timestep time="27436.00"/>
    <timestep time="27437.00"/>
    <timestep time="27438.00"/>
    <timestep time="27439.00"/>
    <timestep time="27440.00"/>
    <timestep time="27441.00"/>
    <timestep time="27442.00"/>
    <timestep time="27443.00"/>
    <timestep time="27444.00"/>
    <timestep time="27445.00"/>
    <timestep time="27446.00"/>
    <timestep time="27447.00"/>
    <timestep time="27448.00"/>
    <timestep time="27449.00"/>
    <timestep time="27450.00"/>
    <timestep time="27451.00"/>
    <timestep time="27452.00"/>
    <timestep time="27453.00"/>
    <timestep time="27454.00"/>
    <timestep time="27455.00"/>
    <timestep time="27456.00"/>
    <timestep time="27457.00"/>
    <timestep time="27458.00"/>
    <timestep time="27459.00"/>
    <timestep time="27460.00"/>
    <timestep time="27461.00"/>
    <timestep time="27462.00"/>
    <timestep time="27463.00"/>
    <timestep time="27464.00"/>
    <timestep time="27465.00"/>
    <timestep time="27466.00"/>
    <timestep time="27467.00"/>
    <timestep time="27468.00"/>
    <timestep time="27469.00"/>
    <timestep time="27470.00"/>
    <timestep time="27471.00"/>
    <timestep time="27472.00"/>
    <timestep time="27473.00"/>
    <timestep time="27474.00"/>
    <timestep time="27475.00"/>
    <timestep time="27476.00"/>
    <timestep time="27477.00"/>
    <timestep time="27478.00"/>
    <timestep time="27479.00"/>
    <timestep time="27480.00"/>
    <timestep time="27481.00"/>
    <timestep time="27482.00"/>
    <timestep time="27483.00"/>
    <timestep time="27484.00"/>
    <timestep time="27485.00"/>
    <timestep time="27486.00"/>
    <timestep time="27487.00"/>
    <timestep time="27488.00"/>
    <timestep time="27489.00"/>
    <timestep time="27490.00"/>
    <timestep time="27491.00"/>
    <timestep time="27492.00"/>
    <timestep time="27493.00"/>
    <timestep time="27494.00"/>
    <timestep time="27495.00"/>
    <timestep time="27496.00"/>
    <timestep time="27497.00"/>
    <timestep time="27498.00"/>
    <timestep time="27499.00"/>
    <timestep time="27500.00"/>
    <timestep time="27501.00"/>
    <timestep time="27502.00"/>
    <timestep time="27503.00"/>
    <timestep time="27504.00"/>
    <timestep time="27505.00"/>
    <timestep time="27506.00"/>
    <timestep time="27507.00"/>
    <timestep time="27508.00"/>
    <timestep time="27509.00"/>
    <timestep time="27510.00"/>
    <timestep time="27511.00"/>
    <timestep time="27512.00"/>
    <timestep time="27513.00"/>
    <timestep time="27514.00"/>
    <timestep time="27515.00"/>
    <timestep time="27516.00"/>
    <timestep time="27517.00"/>
    <timestep time="27518.00"/>
    <timestep time="27519.00"/>
    <timestep time="27520.00"/>
    <timestep time="27521.00"/>
    <timestep time="27522.00"/>
    <timestep time="27523.00"/>
    <timestep time="27524.00"/>
    <timestep time="27525.00"/>
    <timestep time="27526.00"/>
    <timestep time="27527.00"/>
    <timestep time="27528.00"/>
    <timestep time="27529.00"/>
    <timestep time="27530.00"/>
    <timestep time="27531.00"/>
    <timestep time="27532.00"/>
    <timestep time="27533.00"/>
    <timestep time="27534.00"/>
    <timestep time="27535.00"/>
    <timestep time="27536.00"/>
    <timestep time="27537.00"/>
    <timestep time="27538.00"/>
    <timestep time="27539.00"/>
    <timestep time="27540.00"/>
    <timestep time="27541.00"/>
    <timestep time="27542.00"/>
    <timestep time="27543.00"/>
    <timestep time="27544.00"/>
    <timestep time="27545.00"/>
    <timestep time="27546.00"/>
    <timestep time="27547.00"/>
    <timestep time="27548.00"/>
    <timestep time="27549.00"/>
    <timestep time="27550.00"/>
    <timestep time="27551.00"/>
    <timestep time="27552.00"/>
    <timestep time="27553.00"/>
    <timestep time="27554.00"/>
    <timestep time="27555.00"/>
    <timestep time="27556.00"/>
    <timestep time="27557.00"/>
    <timestep time="27558.00"/>
    <timestep time="27559.00"/>
    <timestep time="27560.00"/>
    <timestep time="27561.00"/>
    <timestep time="27562.00"/>
    <timestep time="27563.00"/>
    <timestep time="27564.00"/>
    <timestep time="27565.00"/>
    <timestep time="27566.00"/>
    <timestep time="27567.00"/>
    <timestep time="27568.00"/>
    <timestep time="27569.00"/>
    <timestep time="27570.00"/>
    <timestep time="27571.00"/>
    <timestep time="27572.00"/>
    <timestep time="27573.00"/>
    <timestep time="27574.00"/>
    <timestep time="27575.00"/>
    <timestep time="27576.00"/>
    <timestep time="27577.00"/>
    <timestep time="27578.00"/>
    <timestep time="27579.00"/>
    <timestep time="27580.00"/>
    <timestep time="27581.00"/>
    <timestep time="27582.00"/>
    <timestep time="27583.00"/>
    <timestep time="27584.00"/>
    <timestep time="27585.00"/>
    <timestep time="27586.00"/>
    <timestep time="27587.00"/>
    <timestep time="27588.00"/>
    <timestep time="27589.00"/>
    <timestep time="27590.00"/>
    <timestep time="27591.00"/>
    <timestep time="27592.00"/>
    <timestep time="27593.00"/>
    <timestep time="27594.00"/>
    <timestep time="27595.00"/>
    <timestep time="27596.00"/>
    <timestep time="27597.00"/>
    <timestep time="27598.00"/>
    <timestep time="27599.00"/>
    <timestep time="27600.00"/>
    <timestep time="27601.00"/>
    <timestep time="27602.00"/>
    <timestep time="27603.00"/>
    <timestep time="27604.00"/>
    <timestep time="27605.00"/>
    <timestep time="27606.00"/>
    <timestep time="27607.00"/>
    <timestep time="27608.00"/>
    <timestep time="27609.00"/>
    <timestep time="27610.00"/>
    <timestep time="27611.00"/>
    <timestep time="27612.00"/>
    <timestep time="27613.00"/>
    <timestep time="27614.00"/>
    <timestep time="27615.00"/>
    <timestep time="27616.00"/>
    <timestep time="27617.00"/>
    <timestep time="27618.00"/>
    <timestep time="27619.00"/>
    <timestep time="27620.00"/>
    <timestep time="27621.00"/>
    <timestep time="27622.00"/>
    <timestep time="27623.00"/>
    <timestep time="27624.00"/>
    <timestep time="27625.00"/>
    <timestep time="27626.00"/>
    <timestep time="27627.00"/>
    <timestep time="27628.00"/>
    <timestep time="27629.00"/>
    <timestep time="27630.00"/>
    <timestep time="27631.00"/>
    <timestep time="27632.00"/>
    <timestep time="27633.00"/>
    <timestep time="27634.00"/>
    <timestep time="27635.00"/>
    <timestep time="27636.00"/>
    <timestep time="27637.00"/>
    <timestep time="27638.00"/>
    <timestep time="27639.00"/>
    <timestep time="27640.00"/>
    <timestep time="27641.00"/>
    <timestep time="27642.00"/>
    <timestep time="27643.00"/>
    <timestep time="27644.00"/>
    <timestep time="27645.00"/>
    <timestep time="27646.00"/>
    <timestep time="27647.00"/>
    <timestep time="27648.00"/>
    <timestep time="27649.00"/>
    <timestep time="27650.00"/>
    <timestep time="27651.00"/>
    <timestep time="27652.00"/>
    <timestep time="27653.00"/>
    <timestep time="27654.00"/>
    <timestep time="27655.00"/>
    <timestep time="27656.00"/>
    <timestep time="27657.00"/>
    <timestep time="27658.00"/>
    <timestep time="27659.00"/>
    <timestep time="27660.00"/>
    <timestep time="27661.00"/>
    <timestep time="27662.00"/>
    <timestep time="27663.00"/>
    <timestep time="27664.00"/>
    <timestep time="27665.00"/>
    <timestep time="27666.00"/>
    <timestep time="27667.00"/>
    <timestep time="27668.00"/>
    <timestep time="27669.00"/>
    <timestep time="27670.00"/>
    <timestep time="27671.00"/>
    <timestep time="27672.00"/>
    <timestep time="27673.00"/>
    <timestep time="27674.00"/>
    <timestep time="27675.00"/>
    <timestep time="27676.00"/>
    <timestep time="27677.00"/>
    <timestep time="27678.00"/>
    <timestep time="27679.00"/>
    <timestep time="27680.00"/>
    <timestep time="27681.00"/>
    <timestep time="27682.00"/>
    <timestep time="27683.00"/>
    <timestep time="27684.00"/>
    <timestep time="27685.00"/>
    <timestep time="27686.00"/>
    <timestep time="27687.00"/>
    <timestep time="27688.00"/>
    <timestep time="27689.00"/>
    <timestep time="27690.00"/>
    <timestep time="27691.00"/>
    <timestep time="27692.00"/>
    <timestep time="27693.00"/>
    <timestep time="27694.00"/>
    <timestep time="27695.00"/>
    <timestep time="27696.00"/>
    <timestep time="27697.00"/>
    <timestep time="27698.00"/>
    <timestep time="27699.00"/>
    <timestep time="27700.00"/>
    <timestep time="27701.00"/>
    <timestep time="27702.00"/>
    <timestep time="27703.00"/>
    <timestep time="27704.00"/>
    <timestep time="27705.00"/>
    <timestep time="27706.00"/>
    <timestep time="27707.00"/>
    <timestep time="27708.00"/>
    <timestep time="27709.00"/>
    <timestep time="27710.00"/>
    <timestep time="27711.00"/>
    <timestep time="27712.00"/>
    <timestep time="27713.00"/>
    <timestep time="27714.00"/>
    <timestep time="27715.00"/>
    <timestep time="27716.00"/>
    <timestep time="27717.00"/>
    <timestep time="27718.00"/>
    <timestep time="27719.00"/>
    <timestep time="27720.00"/>
    <timestep time="27721.00"/>
    <timestep time="27722.00"/>
    <timestep time="27723.00"/>
    <timestep time="27724.00"/>
    <timestep time="27725.00"/>
    <timestep time="27726.00"/>
    <timestep time="27727.00"/>
    <timestep time="27728.00"/>
    <timestep time="27729.00"/>
    <timestep time="27730.00"/>
    <timestep time="27731.00"/>
    <timestep time="27732.00"/>
    <timestep time="27733.00"/>
    <timestep time="27734.00"/>
    <timestep time="27735.00"/>
    <timestep time="27736.00"/>
    <timestep time="27737.00"/>
    <timestep time="27738.00"/>
    <timestep time="27739.00"/>
    <timestep time="27740.00"/>
    <timestep time="27741.00"/>
    <timestep time="27742.00"/>
    <timestep time="27743.00"/>
    <timestep time="27744.00"/>
    <timestep time="27745.00"/>
    <timestep time="27746.00"/>
    <timestep time="27747.00"/>
    <timestep time="27748.00"/>
    <timestep time="27749.00"/>
    <timestep time="27750.00"/>
    <timestep time="27751.00"/>
    <timestep time="27752.00"/>
    <timestep time="27753.00"/>
    <timestep time="27754.00"/>
    <timestep time="27755.00"/>
    <timestep time="27756.00"/>
    <timestep time="27757.00"/>
    <timestep time="27758.00"/>
    <timestep time="27759.00"/>
    <timestep time="27760.00"/>
    <timestep time="27761.00"/>
    <timestep time="27762.00"/>
    <timestep time="27763.00"/>
    <timestep time="27764.00"/>
    <timestep time="27765.00"/>
    <timestep time="27766.00"/>
    <timestep time="27767.00"/>
    <timestep time="27768.00"/>
    <timestep time="27769.00"/>
    <timestep time="27770.00"/>
    <timestep time="27771.00"/>
    <timestep time="27772.00"/>
    <timestep time="27773.00"/>
    <timestep time="27774.00"/>
    <timestep time="27775.00"/>
    <timestep time="27776.00"/>
    <timestep time="27777.00"/>
    <timestep time="27778.00"/>
    <timestep time="27779.00"/>
    <timestep time="27780.00"/>
    <timestep time="27781.00"/>
    <timestep time="27782.00"/>
    <timestep time="27783.00"/>
    <timestep time="27784.00"/>
    <timestep time="27785.00"/>
    <timestep time="27786.00"/>
    <timestep time="27787.00"/>
    <timestep time="27788.00"/>
    <timestep time="27789.00"/>
    <timestep time="27790.00"/>
    <timestep time="27791.00"/>
    <timestep time="27792.00"/>
    <timestep time="27793.00"/>
    <timestep time="27794.00"/>
    <timestep time="27795.00"/>
    <timestep time="27796.00"/>
    <timestep time="27797.00"/>
    <timestep time="27798.00"/>
    <timestep time="27799.00"/>
    <timestep time="27800.00"/>
    <timestep time="27801.00"/>
    <timestep time="27802.00"/>
    <timestep time="27803.00"/>
    <timestep time="27804.00"/>
    <timestep time="27805.00"/>
    <timestep time="27806.00"/>
    <timestep time="27807.00"/>
    <timestep time="27808.00"/>
    <timestep time="27809.00"/>
    <timestep time="27810.00"/>
    <timestep time="27811.00"/>
    <timestep time="27812.00"/>
    <timestep time="27813.00"/>
    <timestep time="27814.00"/>
    <timestep time="27815.00"/>
    <timestep time="27816.00"/>
    <timestep time="27817.00"/>
    <timestep time="27818.00"/>
    <timestep time="27819.00"/>
    <timestep time="27820.00"/>
    <timestep time="27821.00"/>
    <timestep time="27822.00"/>
    <timestep time="27823.00"/>
    <timestep time="27824.00"/>
    <timestep time="27825.00"/>
    <timestep time="27826.00"/>
    <timestep time="27827.00"/>
    <timestep time="27828.00"/>
    <timestep time="27829.00"/>
    <timestep time="27830.00"/>
    <timestep time="27831.00"/>
    <timestep time="27832.00"/>
    <timestep time="27833.00"/>
    <timestep time="27834.00"/>
    <timestep time="27835.00"/>
    <timestep time="27836.00"/>
    <timestep time="27837.00"/>
    <timestep time="27838.00"/>
    <timestep time="27839.00"/>
    <timestep time="27840.00"/>
    <timestep time="27841.00"/>
    <timestep time="27842.00"/>
    <timestep time="27843.00"/>
    <timestep time="27844.00"/>
    <timestep time="27845.00"/>
    <timestep time="27846.00"/>
    <timestep time="27847.00"/>
    <timestep time="27848.00"/>
    <timestep time="27849.00"/>
    <timestep time="27850.00"/>
    <timestep time="27851.00"/>
    <timestep time="27852.00"/>
    <timestep time="27853.00"/>
    <timestep time="27854.00"/>
    <timestep time="27855.00"/>
    <timestep time="27856.00"/>
    <timestep time="27857.00"/>
    <timestep time="27858.00"/>
    <timestep time="27859.00"/>
    <timestep time="27860.00"/>
    <timestep time="27861.00"/>
    <timestep time="27862.00"/>
    <timestep time="27863.00"/>
    <timestep time="27864.00"/>
    <timestep time="27865.00"/>
    <timestep time="27866.00"/>
    <timestep time="27867.00"/>
    <timestep time="27868.00"/>
    <timestep time="27869.00"/>
    <timestep time="27870.00"/>
    <timestep time="27871.00"/>
    <timestep time="27872.00"/>
    <timestep time="27873.00"/>
    <timestep time="27874.00"/>
    <timestep time="27875.00"/>
    <timestep time="27876.00"/>
    <timestep time="27877.00"/>
    <timestep time="27878.00"/>
    <timestep time="27879.00"/>
    <timestep time="27880.00"/>
    <timestep time="27881.00"/>
    <timestep time="27882.00"/>
    <timestep time="27883.00"/>
    <timestep time="27884.00"/>
    <timestep time="27885.00"/>
    <timestep time="27886.00"/>
    <timestep time="27887.00"/>
    <timestep time="27888.00"/>
    <timestep time="27889.00"/>
    <timestep time="27890.00"/>
    <timestep time="27891.00"/>
    <timestep time="27892.00"/>
    <timestep time="27893.00"/>
    <timestep time="27894.00"/>
    <timestep time="27895.00"/>
    <timestep time="27896.00"/>
    <timestep time="27897.00"/>
    <timestep time="27898.00"/>
    <timestep time="27899.00"/>
    <timestep time="27900.00"/>
    <timestep time="27901.00"/>
    <timestep time="27902.00"/>
    <timestep time="27903.00"/>
    <timestep time="27904.00"/>
    <timestep time="27905.00"/>
    <timestep time="27906.00"/>
    <timestep time="27907.00"/>
    <timestep time="27908.00"/>
    <timestep time="27909.00"/>
    <timestep time="27910.00"/>
    <timestep time="27911.00"/>
    <timestep time="27912.00"/>
    <timestep time="27913.00"/>
    <timestep time="27914.00"/>
    <timestep time="27915.00"/>
    <timestep time="27916.00"/>
    <timestep time="27917.00"/>
    <timestep time="27918.00"/>
    <timestep time="27919.00"/>
    <timestep time="27920.00"/>
    <timestep time="27921.00"/>
    <timestep time="27922.00"/>
    <timestep time="27923.00"/>
    <timestep time="27924.00"/>
    <timestep time="27925.00"/>
    <timestep time="27926.00"/>
    <timestep time="27927.00"/>
    <timestep time="27928.00"/>
    <timestep time="27929.00"/>
    <timestep time="27930.00"/>
    <timestep time="27931.00"/>
    <timestep time="27932.00"/>
    <timestep time="27933.00"/>
    <timestep time="27934.00"/>
    <timestep time="27935.00"/>
    <timestep time="27936.00"/>
    <timestep time="27937.00"/>
    <timestep time="27938.00"/>
    <timestep time="27939.00"/>
    <timestep time="27940.00"/>
    <timestep time="27941.00"/>
    <timestep time="27942.00"/>
    <timestep time="27943.00"/>
    <timestep time="27944.00"/>
    <timestep time="27945.00"/>
    <timestep time="27946.00"/>
    <timestep time="27947.00"/>
    <timestep time="27948.00"/>
    <timestep time="27949.00"/>
    <timestep time="27950.00"/>
    <timestep time="27951.00"/>
    <timestep time="27952.00"/>
    <timestep time="27953.00"/>
    <timestep time="27954.00"/>
    <timestep time="27955.00"/>
    <timestep time="27956.00"/>
    <timestep time="27957.00"/>
    <timestep time="27958.00"/>
    <timestep time="27959.00"/>
    <timestep time="27960.00"/>
    <timestep time="27961.00"/>
    <timestep time="27962.00"/>
    <timestep time="27963.00"/>
    <timestep time="27964.00"/>
    <timestep time="27965.00"/>
    <timestep time="27966.00"/>
    <timestep time="27967.00"/>
    <timestep time="27968.00"/>
    <timestep time="27969.00"/>
    <timestep time="27970.00"/>
    <timestep time="27971.00"/>
    <timestep time="27972.00"/>
    <timestep time="27973.00"/>
    <timestep time="27974.00"/>
    <timestep time="27975.00"/>
    <timestep time="27976.00"/>
    <timestep time="27977.00"/>
    <timestep time="27978.00"/>
    <timestep time="27979.00"/>
    <timestep time="27980.00"/>
    <timestep time="27981.00"/>
    <timestep time="27982.00"/>
    <timestep time="27983.00"/>
    <timestep time="27984.00"/>
    <timestep time="27985.00"/>
    <timestep time="27986.00"/>
    <timestep time="27987.00"/>
    <timestep time="27988.00"/>
    <timestep time="27989.00"/>
    <timestep time="27990.00"/>
    <timestep time="27991.00"/>
    <timestep time="27992.00"/>
    <timestep time="27993.00"/>
    <timestep time="27994.00"/>
    <timestep time="27995.00"/>
    <timestep time="27996.00"/>
    <timestep time="27997.00"/>
    <timestep time="27998.00"/>
    <timestep time="27999.00"/>
    <timestep time="28000.00"/>
    <timestep time="28001.00"/>
    <timestep time="28002.00"/>
    <timestep time="28003.00"/>
    <timestep time="28004.00"/>
    <timestep time="28005.00"/>
    <timestep time="28006.00"/>
    <timestep time="28007.00"/>
    <timestep time="28008.00"/>
    <timestep time="28009.00"/>
    <timestep time="28010.00"/>
    <timestep time="28011.00"/>
    <timestep time="28012.00"/>
    <timestep time="28013.00"/>
    <timestep time="28014.00"/>
    <timestep time="28015.00"/>
    <timestep time="28016.00"/>
    <timestep time="28017.00"/>
    <timestep time="28018.00"/>
    <timestep time="28019.00"/>
    <timestep time="28020.00"/>
    <timestep time="28021.00"/>
    <timestep time="28022.00"/>
    <timestep time="28023.00"/>
    <timestep time="28024.00"/>
    <timestep time="28025.00"/>
    <timestep time="28026.00"/>
    <timestep time="28027.00"/>
    <timestep time="28028.00"/>
    <timestep time="28029.00"/>
    <timestep time="28030.00"/>
    <timestep time="28031.00"/>
    <timestep time="28032.00"/>
    <timestep time="28033.00"/>
    <timestep time="28034.00"/>
    <timestep time="28035.00"/>
    <timestep time="28036.00"/>